version 2
run General-0-20160318-05:02:14-11667
attr configname General
attr datetime 20160318-05:02:14
attr experiment General
attr inifile omnetpp.ini
attr iterationvars ""
attr iterationvars2 $repetition=0
attr measurement ""
attr network Network
attr processid 11667
attr repetition 0
attr replication #0
attr resultdir results
attr runnumber 0
attr seedset 0

vector 4  Network.n5.n5  delay  ETV
4	35	0	0
4	55	0	0
4	73	0	0
4	91	0	0
4	109	0	0
4	127	0	0
4	145	0	0
4	163	0	0
4	181	0	0
4	197	0	0
